# vtk DataFile Version 2.0
Temperature °C plot
ASCII

DATASET RECTILINEAR_GRID
DIMENSIONS 5 5 1

Y_COORDINATES 5 float
0.0025 0.0075 0.0125 0.0175 0.0225 

X_COORDINATES 5 float
0.0025 0.0075 0.0125 0.0175 0.0225 

Z_COORDINATES 1 float
0

POINT_DATA 25
SCALARS Region int
LOOKUP_TABLE my_table
0
0
0
0
0
0
1
1
1
0
0
1
1
1
0
0
1
1
1
0
0
0
0
0
0
SCALARS Temperature float
LOOKUP_TABLE my_table
0
0
0
0
0
0
0
0
0
0
0
0
0
0
0
0
0
0
0
0
0
0
0
0
0
